# vtk DataFile Version 3.0
GRASS GIS 7 vector map: dataset1
ASCII
DATASET POLYDATA
POINTS 40462 float
638775.05012969 220000.5 104 
638774.79408754 220001.5 104 
638774.65037826 220002.5 104 
638774.70455007 220003.5 104 
638775.27434312 220004.5 104 
638775.5 220004.65173561 104 
638776.5 220004.83408578 104 
638777.5 220004.75076166 104 
638778.5 220004.5672043 104 
638778.77058369 220004.5 104 
638779.5 220004.32253362 104 
638780.5 220004.06010707 104 
638781.5 220003.79533941 104 
638782.5 220003.52625995 104 
638782.58636859 220003.5 104 
638783.5 220003.1988714 104 
638784.5 220002.84347736 104 
638785.36971647 220002.5 104 
638785.5 220002.43872709 104 
638786.5 220001.8983044 104 
638787.14780039 220001.5 104 
638787.5 220001.21349215 104 
638788.27771309 220000.5 104 
638888.96333783 220000.5 104 
638888.5 220000.70753576 104 
638887.5 220001.37745993 104 
638887.36817983 220001.5 104 
638886.60604454 220002.5 104 
638886.5 220002.74752475 104 
638886.25918885 220003.5 104 
638886.18475096 220004.5 104 
638886.3240095 220005.5 104 
638886.5 220006.0607565 104 
638886.67181431 220006.5 104 
638887.23274144 220007.5 104 
638887.5 220007.88795371 104 
638888.11044071 220008.5 104 
638888.5 220008.82948746 104 
638889.5 220009.22811253 104 
638890.5 220009.20382728 104 
638891.5 220008.8556198 104 
638892.05687606 220008.5 104 
638892.5 220008.18554217 104 
638893.2533098 220007.5 104 
638893.5 220007.23902894 104 
638894.10884615 220006.5 104 
638894.5 220005.91918903 104 
638894.76284691 220005.5 104 
638895.20461783 220004.5 104 
638895.41008969 220003.5 104 
638895.25300128 220002.5 104 
638894.55854801 220001.5 104 
638894.5 220001.4537037 104 
638893.5 220000.89970345 104 
638892.5 220000.57977883 104 
638891.92776204 220000.5 104 
638764.64183459 220000.5 105 
638764.5 220001.01366582 105 
638764.35942336 220001.5 105 
638764.02230468 220002.5 105 
638763.65137181 220003.5 105 
638763.5 220003.88984772 105 
638763.2414164 220004.5 105 
638762.82714076 220005.5 105 
638762.5 220006.38272325 105 
638762.45108431 220006.5 105 
638762.12804817 220007.5 105 
638761.9365587 220008.5 105 
638761.92004334 220009.5 105 
638762.12537486 220010.5 105 
638762.5 220011.29452055 105 
638762.59543286 220011.5 105 
638763.33736809 220012.5 105 
638763.5 220012.65979507 105 
638764.39211242 220013.5 105 
638764.5 220013.58172275 105 
638765.5 220014.28528935 105 
638765.85367483 220014.5 105 
638766.5 220014.84192129 105 
638767.5 220015.26720929 105 
638768.24491941 220015.5 105 
638768.5 220015.57379874 105 
638769.5 220015.77039642 105 
638770.5 220015.86975508 105 
638771.5 220015.88217237 105 
638772.5 220015.81629467 105 
638773.5 220015.677576 105 
638774.34703947 220015.5 105 
638774.5 220015.46831886 105 
638775.5 220015.19245447 105 
638776.5 220014.84336558 105 
638777.30974511 220014.5 105 
638777.5 220014.41729415 105 
638778.5 220013.92221652 105 
638779.25625718 220013.5 105 
638779.5 220013.36028299 105 
638780.5 220012.75965976 105 
638780.92512404 220012.5 105 
638781.5 220012.14913971 105 
638782.5 220011.55849582 105 
638782.60831901 220011.5 105 
638783.5 220011.03589867 105 
638784.5 220010.57005553 105 
638784.67672414 220010.5 105 
638785.5 220010.19127155 105 
638786.5 220009.87278606 105 
638787.5 220009.59995548 105 
638787.93592233 220009.5 105 
638788.5 220009.37591657 105 
638789.5 220009.18286895 105 
638790.5 220008.99742268 105 
638791.5 220008.80608157 105 
638792.5 220008.59689379 105 
638792.93716094 220008.5 105 
638793.5 220008.37377066 105 
638794.5 220008.13263702 105 
638795.5 220007.87343731 105 
638796.5 220007.61670264 105 
638797.03995006 220007.5 105 
638797.5 220007.39789415 105 
638798.5 220007.24525386 105 
638799.5 220007.17751299 105 
638800.5 220007.19913286 105 
638801.5 220007.29065478 105 
638802.5 220007.41307611 105 
638803.30082988 220007.5 105 
638803.5 220007.52041684 105 
638804.5 220007.5638587 105 
638805.5 220007.52459124 105 
638805.65972812 220007.5 105 
638806.5 220007.36998817 105 
638807.5 220007.08249549 105 
638808.5 220006.65223766 105 
638808.76305354 220006.5 105 
638809.5 220006.05028233 105 
638810.22199682 220005.5 105 
638810.5 220005.2689827 105 
638811.28875357 220004.5 105 
638811.5 220004.26665006 105 
638812.12589831 220003.5 105 
638812.5 220002.95827607 105 
638812.79961489 220002.5 105 
638813.3254503 220001.5 105 
638813.5 220001.0530856 105 
638813.7138276 220000.5 105 
638875.73213312 220000.5 105 
638875.72697626 220001.5 105 
638875.7526919 220002.5 105 
638875.8099957 220003.5 105 
638875.8996379 220004.5 105 
638876.0219083 220005.5 105 
638876.17557708 220006.5 105 
638876.3565938 220007.5 105 
638876.5 220008.21776375 105 
638876.55746282 220008.5 105 
638876.76669135 220009.5 105 
638876.9650773 220010.5 105 
638877.13259462 220011.5 105 
638877.25048188 220012.5 105 
638877.30432225 220013.5 105 
638877.2862205 220014.5 105 
638877.19489338 220015.5 105 
638877.03381791 220016.5 105 
638876.8093252 220017.5 105 
638876.52905461 220018.5 105 
638876.5 220018.59134519 105 
638876.21487707 220019.5 105 
638875.87229268 220020.5 105 
638875.51257862 220021.5 105 
638875.5 220021.53693296 105 
638875.170648 220022.5 105 
638874.85088106 220023.5 105 
638874.57260252 220024.5 105 
638874.5 220024.8558858 105 
638874.36381677 220025.5 105 
638874.24711689 220026.5 105 
638874.25036695 220027.5 105 
638874.41616113 220028.5 105 
638874.5 220028.74608262 105 
638874.81521739 220029.5 105 
638875.5 220030.489245 105 
638875.5090843 220030.5 105 
638876.5 220031.44408863 105 
638876.56961207 220031.5 105 
638877.5 220032.19595357 105 
638877.96453202 220032.5 105 
638878.5 220032.85945767 105 
638879.5 220033.45987502 105 
638879.57863358 220033.5 105 
638880.5 220034.02836814 105 
638881.5 220034.48739255 105 
638881.54319372 220034.5 105 
638882.5 220034.83076923 105 
638883.5 220034.94782922 105 
638884.5 220034.78046272 105 
638885.07390847 220034.5 105 
638885.5 220034.3009828 105 
638886.5 220033.51342642 105 
638886.51274535 220033.5 105 
638887.4972067 220032.5 105 
638887.5 220032.497269 105 
638888.36669304 220031.5 105 
638888.5 220031.35254868 105 
638889.21794399 220030.5 105 
638889.5 220030.17930457 105 
638890.09889197 220029.5 105 
638890.5 220029.06420546 105 
638891.03439757 220028.5 105 
638891.5 220028.02445652 105 
638892.08446896 220027.5 105 
638892.5 220027.12843327 105 
638893.29788802 220026.5 105 
638893.5 220026.33582685 105 
638894.5 220025.62356322 105 
638894.69600281 220025.5 105 
638895.5 220024.94840029 105 
638896.16216696 220024.5 105 
638896.5 220024.26278374 105 
638897.5 220023.51798763 105 
638897.52166554 220023.5 105 
638898.5 220022.56744111 105 
638898.55966315 220022.5 105 
638899.42926637 220021.5 105 
638899.5 220021.42048478 105 
638900.21536871 220020.5 105 
638900.5 220020.15924092 105 
638900.97663551 220019.5 105 
638901.5 220018.84035088 105 
638901.73020851 220018.5 105 
638902.46463075 220017.5 105 
638902.5 220017.45493428 105 
638903.12940044 220016.5 105 
638903.5 220015.95156695 105 
638903.75458926 220015.5 105 
638904.32445454 220014.5 105 
638904.5 220014.19288897 105 
638904.8357116 220013.5 105 
638905.32101987 220012.5 105 
638905.5 220012.13641436 105 
638905.7743526 220011.5 105 
638906.21829868 220010.5 105 
638906.5 220009.88496188 105 
638906.65987912 220009.5 105 
638907.08949038 220008.5 105 
638907.5 220007.55743131 105 
638907.52329172 220007.5 105 
638907.9213696 220006.5 105 
638908.2968462 220005.5 105 
638908.5 220004.88815789 105 
638908.62243045 220004.5 105 
638908.87941003 220003.5 105 
638909.06553058 220002.5 105 
638909.17053948 220001.5 105 
638909.18883792 220000.5 105 
638745.20571737 220000.5 106 
638744.62841232 220001.5 106 
638744.5 220001.66558716 106 
638743.76275193 220002.5 106 
638743.5 220002.72986504 106 
638742.5 220003.45901639 106 
638742.43193717 220003.5 106 
638741.5 220003.96338077 106 
638740.5 220004.38949616 106 
638740.23175788 220004.5 106 
638739.5 220004.77642913 106 
638738.5 220005.21546425 106 
638737.8830235 220005.5 106 
638737.5 220005.68549346 106 
638736.52817187 220006.5 106 
638736.5 220006.52892218 106 
638735.80746402 220007.5 106 
638735.5 220008.13793103 106 
638735.36169587 220008.5 106 
638735.1322323 220009.5 106 
638735.05355164 220010.5 106 
638735.1054474 220011.5 106 
638735.27599552 220012.5 106 
638735.5 220013.28190104 106 
638735.56521951 220013.5 106 
638735.98696162 220014.5 106 
638736.5 220015.43055802 106 
638736.54196553 220015.5 106 
638737.2822634 220016.5 106 
638737.5 220016.74955752 106 
638738.25053736 220017.5 106 
638738.5 220017.7232153 106 
638739.5 220018.48647743 106 
638739.52184116 220018.5 106 
638740.5 220019.08031698 106 
638741.40133395 220019.5 106 
638741.5 220019.54615385 106 
638742.5 220019.89117419 106 
638743.5 220020.13280266 106 
638744.5 220020.28866101 106 
638745.5 220020.38488344 106 
638746.5 220020.45356711 106 
638747.14 220020.5 106 
638747.5 220020.52747043 106 
638748.5 220020.63238036 106 
638749.5 220020.77520632 106 
638750.5 220020.9534685 106 
638751.5 220021.15834684 106 
638752.5 220021.38100616 106 
638752.99508757 220021.5 106 
638753.5 220021.6182 106 
638754.5 220021.86683273 106 
638755.5 220022.1276003 106 
638756.5 220022.40702122 106 
638756.80278766 220022.5 106 
638757.5 220022.71440948 106 
638758.5 220023.05302135 106 
638759.5 220023.42324502 106 
638759.69397147 220023.5 106 
638760.5 220023.83400076 106 
638761.5 220024.2681382 106 
638762.02762612 220024.5 106 
638762.5 220024.70323217 106 
638763.5 220025.12117914 106 
638764.46110444 220025.5 106 
638764.5 220025.51551576 106 
638765.5 220025.87674646 106 
638766.5 220026.19815877 106 
638767.5 220026.47353833 106 
638767.62377691 220026.5 106 
638768.5 220026.69381019 106 
638769.5 220026.85554286 106 
638770.5 220026.95368689 106 
638771.5 220026.98679487 106 
638772.5 220026.95993785 106 
638773.5 220026.88648572 106 
638774.5 220026.78655142 106 
[...]
CELL_DATA 73
SCALARS cat_dataset1 int 1
LOOKUP_TABLE default
 1 1 2 2 3 3 4 4 4 5 5 5 6 6 7 7 8 8 9 9 10 10 10 10 10 10 11 11 11 11 11 12 12 12 13 13 14 14 14 15 15 16 16 17 18 19 20 20 21 21 21 21 22 22 22 22 22 22 23 23 24 24 25 25 26 26 26 26 27 27 27 28 28
